SMILES,Temperature,SMILES Solvent,Solubility
O=Cc1ccc(C(=O)O)cc1,313.15,CN1CCCC1=O,0.1607
O=Cc1ccc(C(=O)O)cc1,313.15,O,9.572e-05
O=Cc1ccc(C(=O)O)cc1,313.15,CO,0.01633
O=Cc1ccc(C(=O)O)cc1,313.15,CC(C)O,0.01399
O=Cc1ccc(C(=O)O)cc1,313.15,CCO,0.02109
OCC(CO)(CO)CO,313.15,CO,0.003163
OCC(CO)(CO)CO,313.15,CCO,0.002058
OCC(CO)(CO)CO,313.15,CC(C)O,0.001987
OCC(CO)(CO)CO,313.15,O,0.01535
OCC(CO)(CO)CO,313.15,CC#N,0.0001293